                         Program Version 5.0.3 -  RELEASE  -
|  1> ! B3LYP def2-TZVP DEFGRID3 TightSCF KeepDens
|  2> %output PrintLevel Mini Print[ P_Mulliken ] 1 Print[P_AtCharges_M] 1 end
|  3> %pal nprocs 4 end
|  4> %coords
|  5>     CTyp xyz
|  6>     Charge 0
|  7>     Mult 1
|  8>     Units Angs
|  9>     coords
| 10>         C  17.208000  15.263000  19.896000
| 11>         C  15.242000  15.762000  12.598000
| 12>         C  14.222000  16.351000  13.400000
| 13>         C  16.464000  15.304000  13.145000
| 14>         C  14.495000  16.702000  14.722000
| 15>         C  16.694000  15.630000  14.508000
| 16>         C  16.096000  16.869000  16.645000
| 17>         C  16.704000  16.129000  18.804000
| 18>         C  15.776000  16.408000  15.244000
| 19>         O  16.776000  17.297000  19.167000
| 20>         O  16.386000  15.756000  17.534000
| 21>         H  17.127000  15.705000  20.894000
| 22>         H  16.644000  14.327000  19.838000
| 23>         H  18.216000  14.898000  19.679000
| 24>         H  15.044000  15.666000  11.535000
| 25>         H  13.274000  16.659000  12.971000
| 26>         H  17.157000  14.716000  12.552000
| 27>         H  13.800000  17.283000  15.320000
| 28>         H  17.620000  15.289000  14.959000
| 29>         H  15.236000  17.402000  17.062000
| 30>         H  16.873000  17.637000  16.581000
| 31>     end
| 32> end
| 33>
| 34>                          ****END OF INPUT****

CARTESIAN COORDINATES (ANGSTROEM)
---------------------------------
  C     17.208000   15.263000   19.896000
  C     15.242000   15.762000   12.598000
  C     14.222000   16.351000   13.400000
  C     16.464000   15.304000   13.145000
  C     14.495000   16.702000   14.722000
  C     16.694000   15.630000   14.508000
  C     16.096000   16.869000   16.645000
  C     16.704000   16.129000   18.804000
  C     15.776000   16.408000   15.244000
  O     16.776000   17.297000   19.167000
  O     16.386000   15.756000   17.534000
  H     17.127000   15.705000   20.894000
  H     16.644000   14.327000   19.838000
  H     18.216000   14.898000   19.679000
  H     15.044000   15.666000   11.535000
  H     13.274000   16.659000   12.971000
  H     17.157000   14.716000   12.552000
  H     13.800000   17.283000   15.320000
  H     17.620000   15.289000   14.959000
  H     15.236000   17.402000   17.062000
  H     16.873000   17.637000   16.581000

ORBITAL ENERGIES
----------------

  NO   OCC          E(Eh)            E(eV)
   0   2.0000     -19.182800      -521.9905
   1   2.0000     -19.100082      -519.7397
   2   2.0000     -10.300596      -280.2935
   3   2.0000     -10.235343      -278.5179
   4   2.0000     -10.193629      -277.3828
   5   2.0000     -10.188717      -277.2491
   6   2.0000     -10.186252      -277.1820
   7   2.0000     -10.185994      -277.1750
   8   2.0000     -10.185087      -277.1503
   9   2.0000     -10.184512      -277.1347
  10   2.0000     -10.182211      -277.0720
  11   2.0000      -1.101261       -29.9668
  12   2.0000      -1.011833       -27.5334
  13   2.0000      -0.858459       -23.3598
  14   2.0000      -0.782703       -21.2984
  15   2.0000      -0.752670       -20.4812
  16   2.0000      -0.748254       -20.3610
  17   2.0000      -0.691662       -18.8211
  18   2.0000      -0.614955       -16.7338
  19   2.0000      -0.598796       -16.2941
  20   2.0000      -0.572193       -15.5702
  21   2.0000      -0.522163       -14.2088
  22   2.0000      -0.498300       -13.5594
  23   2.0000      -0.492934       -13.4134
  24   2.0000      -0.475811       -12.9475
  25   2.0000      -0.460301       -12.5254
  26   2.0000      -0.452877       -12.3234
  27   2.0000      -0.434392       -11.8204
  28   2.0000      -0.429048       -11.6750
  29   2.0000      -0.412653       -11.2289
  30   2.0000      -0.411043       -11.1851
  31   2.0000      -0.379979       -10.3398
  32   2.0000      -0.365330        -9.9411
  33   2.0000      -0.360823        -9.8185
  34   2.0000      -0.350645        -9.5415
  35   2.0000      -0.344680        -9.3792
  36   2.0000      -0.308924        -8.4062
  37   2.0000      -0.265777        -7.2322
  38   2.0000      -0.262444        -7.1415
  39   2.0000      -0.250179        -6.8077
  40   0.0000      -0.028871        -0.7856
  41   0.0000      -0.023922        -0.6509
  42   0.0000      -0.003236        -0.0881
  43   0.0000       0.038374         1.0442
  44   0.0000       0.050118         1.3638

MULLIKEN ATOMIC CHARGES
-----------------------
   0 C :   -0.321340
   1 C :   -0.117773
   2 C :   -0.114363
   3 C :   -0.098699
   4 C :   -0.155639
   5 C :   -0.182421
   6 C :   -0.065590
   7 C :    0.340045
   8 C :    0.160911
   9 O :   -0.357828
  10 O :   -0.273856
  11 H :    0.147213
  12 H :    0.112481
  13 H :    0.127623
  14 H :    0.110703
  15 H :    0.111525
  16 H :    0.119614
  17 H :    0.115551
  18 H :    0.108630
  19 H :    0.106353
  20 H :    0.126860
Sum of atomic charges:   -0.0000000

FINAL SINGLE POINT ENERGY      -499.309216838298

DIPOLE MOMENT
-------------
                                X             Y             Z
Electronic contribution:     -0.56793       1.17799      -0.85841
Nuclear contribution   :      0.54649      -1.72058       0.36544
                        -----------------------------------------
Total Dipole Moment    :     -0.02144      -0.54259      -0.49296
                        -----------------------------------------
Magnitude (a.u.)       :      0.73341
Magnitude (Debye)      :      1.86417

Rotational constants in cm-1:     0.114403     0.016148     0.014950
Rotational constants in MHz :  3429.714989   484.102236   448.175541

                             ****ORCA TERMINATED NORMALLY****
TOTAL RUN TIME: 0 days 0 hours 1 minutes 35 seconds 977 msec
